compound_id	name	cas	chemspider_id	pubchem_id	conc_max	conc_min	formula	smiles	molecular_weight	density
194	Benzamidine hydrochloride	1670-14-0	72530		0.25	0.05	C_{7}H_{9}ClN_{2}	[H]/N=C(/c1ccccc1)\N.Cl	156.6128	
198	Caffeine	58-08-2	2424		0.33	0.2	C_{8}H_{10}N_{4}O_{2}	Cn1cnc2c1c(=O)n(c(=O)n2C)C	194.1906	1.456